+ 0.1 2 0 cbr 1000 ------- 0 2.0 1.0 0 0
- 0.1 2 0 cbr 1000 ------- 0 2.0 1.0 0 0
+ 0.1 2 0 cbr 1000 ------- 0 2.0 1.0 1 1
+ 0.1 2 0 cbr 1000 ------- 0 2.0 1.0 2 2
+ 0.1 2 0 cbr 1000 ------- 0 2.0 1.0 3 3
+ 0.1 2 0 cbr 1000 ------- 0 2.0 1.0 4 4
+ 0.1 2 0 cbr 1000 ------- 0 2.0 1.0 5 5
+ 0.1 2 0 cbr 1000 ------- 0 2.0 1.0 6 6
+ 0.1 3 0 cbr 1000 ------- 0 3.0 1.0 0 7
- 0.1 3 0 cbr 1000 ------- 0 3.0 1.0 0 7
+ 0.1 3 0 cbr 1000 ------- 0 3.0 1.0 1 8
+ 0.1 3 0 cbr 1000 ------- 0 3.0 1.0 2 9
+ 0.1 3 0 cbr 1000 ------- 0 3.0 1.0 3 10
- 0.100667 2 0 cbr 1000 ------- 0 2.0 1.0 1 1
- 0.100667 3 0 cbr 1000 ------- 0 3.0 1.0 1 8
- 0.101333 2 0 cbr 1000 ------- 0 2.0 1.0 2 2
- 0.101333 3 0 cbr 1000 ------- 0 3.0 1.0 2 9
- 0.102 2 0 cbr 1000 ------- 0 2.0 1.0 3 3
- 0.102 3 0 cbr 1000 ------- 0 3.0 1.0 3 10
- 0.102667 2 0 cbr 1000 ------- 0 2.0 1.0 4 4
- 0.103333 2 0 cbr 1000 ------- 0 2.0 1.0 5 5
- 0.104 2 0 cbr 1000 ------- 0 2.0 1.0 6 6
+ 0.15 3 0 cbr 1000 ------- 0 3.0 1.0 4 11
- 0.15 3 0 cbr 1000 ------- 0 3.0 1.0 4 11
+ 0.15 3 0 cbr 1000 ------- 0 3.0 1.0 5 12
+ 0.15 3 0 cbr 1000 ------- 0 3.0 1.0 6 13
+ 0.15 3 0 cbr 1000 ------- 0 3.0 1.0 7 14
- 0.150667 3 0 cbr 1000 ------- 0 3.0 1.0 5 12
- 0.151333 3 0 cbr 1000 ------- 0 3.0 1.0 6 13
- 0.152 3 0 cbr 1000 ------- 0 3.0 1.0 7 14
+ 0.2 3 0 cbr 1000 ------- 0 3.0 1.0 8 15
- 0.2 3 0 cbr 1000 ------- 0 3.0 1.0 8 15
+ 0.2 3 0 cbr 1000 ------- 0 3.0 1.0 9 16
+ 0.2 3 0 cbr 1000 ------- 0 3.0 1.0 10 17
+ 0.2 3 0 cbr 1000 ------- 0 3.0 1.0 11 18
r 0.200667 2 0 cbr 1000 ------- 0 2.0 1.0 0 0
+ 0.200667 0 1 cbr 1000 ------- 0 2.0 1.0 0 0
- 0.200667 0 1 cbr 1000 ------- 0 2.0 1.0 0 0
r 0.200667 3 0 cbr 1000 ------- 0 3.0 1.0 0 7
+ 0.200667 0 1 cbr 1000 ------- 0 3.0 1.0 0 7
- 0.200667 3 0 cbr 1000 ------- 0 3.0 1.0 9 16
r 0.201333 2 0 cbr 1000 ------- 0 2.0 1.0 1 1
+ 0.201333 0 1 cbr 1000 ------- 0 2.0 1.0 1 1
r 0.201333 3 0 cbr 1000 ------- 0 3.0 1.0 1 8
+ 0.201333 0 1 cbr 1000 ------- 0 3.0 1.0 1 8
- 0.201333 3 0 cbr 1000 ------- 0 3.0 1.0 10 17
- 0.202 0 1 cbr 1000 ------- 0 3.0 1.0 0 7
r 0.202 2 0 cbr 1000 ------- 0 2.0 1.0 2 2
+ 0.202 0 1 cbr 1000 ------- 0 2.0 1.0 2 2
r 0.202 3 0 cbr 1000 ------- 0 3.0 1.0 2 9
+ 0.202 0 1 cbr 1000 ------- 0 3.0 1.0 2 9
- 0.202 3 0 cbr 1000 ------- 0 3.0 1.0 11 18
r 0.202667 2 0 cbr 1000 ------- 0 2.0 1.0 3 3
+ 0.202667 0 1 cbr 1000 ------- 0 2.0 1.0 3 3
r 0.202667 3 0 cbr 1000 ------- 0 3.0 1.0 3 10
+ 0.202667 0 1 cbr 1000 ------- 0 3.0 1.0 3 10
r 0.203333 2 0 cbr 1000 ------- 0 2.0 1.0 4 4
+ 0.203333 0 1 cbr 1000 ------- 0 2.0 1.0 4 4
- 0.203333 0 1 cbr 1000 ------- 0 2.0 1.0 1 1
r 0.204 2 0 cbr 1000 ------- 0 2.0 1.0 5 5
+ 0.204 0 1 cbr 1000 ------- 0 2.0 1.0 5 5
- 0.204667 0 1 cbr 1000 ------- 0 3.0 1.0 1 8
r 0.204667 2 0 cbr 1000 ------- 0 2.0 1.0 6 6
+ 0.204667 0 1 cbr 1000 ------- 0 2.0 1.0 6 6
- 0.206 0 1 cbr 1000 ------- 0 2.0 1.0 2 2
- 0.207333 0 1 cbr 1000 ------- 0 3.0 1.0 2 9
- 0.208667 0 1 cbr 1000 ------- 0 2.0 1.0 3 3
- 0.21 0 1 cbr 1000 ------- 0 3.0 1.0 3 10
- 0.211333 0 1 cbr 1000 ------- 0 2.0 1.0 4 4
- 0.212667 0 1 cbr 1000 ------- 0 2.0 1.0 5 5
- 0.214 0 1 cbr 1000 ------- 0 2.0 1.0 6 6
+ 0.25 3 0 cbr 1000 ------- 0 3.0 1.0 12 19
- 0.25 3 0 cbr 1000 ------- 0 3.0 1.0 12 19
+ 0.25 3 0 cbr 1000 ------- 0 3.0 1.0 13 20
+ 0.25 3 0 cbr 1000 ------- 0 3.0 1.0 14 21
+ 0.25 3 0 cbr 1000 ------- 0 3.0 1.0 15 22
- 0.250667 3 0 cbr 1000 ------- 0 3.0 1.0 13 20
r 0.250667 3 0 cbr 1000 ------- 0 3.0 1.0 4 11
+ 0.250667 0 1 cbr 1000 ------- 0 3.0 1.0 4 11
- 0.250667 0 1 cbr 1000 ------- 0 3.0 1.0 4 11
- 0.251333 3 0 cbr 1000 ------- 0 3.0 1.0 14 21
r 0.251333 3 0 cbr 1000 ------- 0 3.0 1.0 5 12
+ 0.251333 0 1 cbr 1000 ------- 0 3.0 1.0 5 12
- 0.252 3 0 cbr 1000 ------- 0 3.0 1.0 15 22
r 0.252 3 0 cbr 1000 ------- 0 3.0 1.0 6 13
+ 0.252 0 1 cbr 1000 ------- 0 3.0 1.0 6 13
- 0.252 0 1 cbr 1000 ------- 0 3.0 1.0 5 12
r 0.252667 3 0 cbr 1000 ------- 0 3.0 1.0 7 14
+ 0.252667 0 1 cbr 1000 ------- 0 3.0 1.0 7 14
- 0.253333 0 1 cbr 1000 ------- 0 3.0 1.0 6 13
- 0.254667 0 1 cbr 1000 ------- 0 3.0 1.0 7 14
+ 0.3 3 0 cbr 1000 ------- 0 3.0 1.0 16 23
- 0.3 3 0 cbr 1000 ------- 0 3.0 1.0 16 23
+ 0.3 3 0 cbr 1000 ------- 0 3.0 1.0 17 24
+ 0.3 3 0 cbr 1000 ------- 0 3.0 1.0 18 25
+ 0.3 3 0 cbr 1000 ------- 0 3.0 1.0 19 26
- 0.300667 3 0 cbr 1000 ------- 0 3.0 1.0 17 24
r 0.300667 3 0 cbr 1000 ------- 0 3.0 1.0 8 15
+ 0.300667 0 1 cbr 1000 ------- 0 3.0 1.0 8 15
- 0.300667 0 1 cbr 1000 ------- 0 3.0 1.0 8 15
- 0.301333 3 0 cbr 1000 ------- 0 3.0 1.0 18 25
r 0.301333 3 0 cbr 1000 ------- 0 3.0 1.0 9 16
+ 0.301333 0 1 cbr 1000 ------- 0 3.0 1.0 9 16
- 0.302 3 0 cbr 1000 ------- 0 3.0 1.0 19 26
r 0.302 3 0 cbr 1000 ------- 0 3.0 1.0 10 17
+ 0.302 0 1 cbr 1000 ------- 0 3.0 1.0 10 17
- 0.302 0 1 cbr 1000 ------- 0 3.0 1.0 9 16
r 0.302667 3 0 cbr 1000 ------- 0 3.0 1.0 11 18
+ 0.302667 0 1 cbr 1000 ------- 0 3.0 1.0 11 18
- 0.303333 0 1 cbr 1000 ------- 0 3.0 1.0 10 17
- 0.304667 0 1 cbr 1000 ------- 0 3.0 1.0 11 18
+ 0.35 3 0 cbr 1000 ------- 0 3.0 1.0 20 27
- 0.35 3 0 cbr 1000 ------- 0 3.0 1.0 20 27
+ 0.35 3 0 cbr 1000 ------- 0 3.0 1.0 21 28
+ 0.35 3 0 cbr 1000 ------- 0 3.0 1.0 22 29
+ 0.35 3 0 cbr 1000 ------- 0 3.0 1.0 23 30
- 0.350667 3 0 cbr 1000 ------- 0 3.0 1.0 21 28
r 0.350667 3 0 cbr 1000 ------- 0 3.0 1.0 12 19
+ 0.350667 0 1 cbr 1000 ------- 0 3.0 1.0 12 19
- 0.350667 0 1 cbr 1000 ------- 0 3.0 1.0 12 19
- 0.351333 3 0 cbr 1000 ------- 0 3.0 1.0 22 29
r 0.351333 3 0 cbr 1000 ------- 0 3.0 1.0 13 20
+ 0.351333 0 1 cbr 1000 ------- 0 3.0 1.0 13 20
- 0.352 3 0 cbr 1000 ------- 0 3.0 1.0 23 30
r 0.352 3 0 cbr 1000 ------- 0 3.0 1.0 14 21
+ 0.352 0 1 cbr 1000 ------- 0 3.0 1.0 14 21
- 0.352 0 1 cbr 1000 ------- 0 3.0 1.0 13 20
r 0.352667 3 0 cbr 1000 ------- 0 3.0 1.0 15 22
+ 0.352667 0 1 cbr 1000 ------- 0 3.0 1.0 15 22
- 0.353333 0 1 cbr 1000 ------- 0 3.0 1.0 14 21
- 0.354667 0 1 cbr 1000 ------- 0 3.0 1.0 15 22
+ 0.4 3 0 cbr 1000 ------- 0 3.0 1.0 24 31
- 0.4 3 0 cbr 1000 ------- 0 3.0 1.0 24 31
+ 0.4 3 0 cbr 1000 ------- 0 3.0 1.0 25 32
+ 0.4 3 0 cbr 1000 ------- 0 3.0 1.0 26 33
+ 0.4 3 0 cbr 1000 ------- 0 3.0 1.0 27 34
- 0.400667 3 0 cbr 1000 ------- 0 3.0 1.0 25 32
r 0.400667 3 0 cbr 1000 ------- 0 3.0 1.0 16 23
+ 0.400667 0 1 cbr 1000 ------- 0 3.0 1.0 16 23
- 0.400667 0 1 cbr 1000 ------- 0 3.0 1.0 16 23
- 0.401333 3 0 cbr 1000 ------- 0 3.0 1.0 26 33
r 0.401333 3 0 cbr 1000 ------- 0 3.0 1.0 17 24
+ 0.401333 0 1 cbr 1000 ------- 0 3.0 1.0 17 24
- 0.402 3 0 cbr 1000 ------- 0 3.0 1.0 27 34
r 0.402 3 0 cbr 1000 ------- 0 3.0 1.0 18 25
+ 0.402 0 1 cbr 1000 ------- 0 3.0 1.0 18 25
r 0.402 0 1 cbr 1000 ------- 0 2.0 1.0 0 0
- 0.402 0 1 cbr 1000 ------- 0 3.0 1.0 17 24
r 0.402667 3 0 cbr 1000 ------- 0 3.0 1.0 19 26
+ 0.402667 0 1 cbr 1000 ------- 0 3.0 1.0 19 26
r 0.403333 0 1 cbr 1000 ------- 0 3.0 1.0 0 7
- 0.403333 0 1 cbr 1000 ------- 0 3.0 1.0 18 25
r 0.404667 0 1 cbr 1000 ------- 0 2.0 1.0 1 1
- 0.404667 0 1 cbr 1000 ------- 0 3.0 1.0 19 26
r 0.406 0 1 cbr 1000 ------- 0 3.0 1.0 1 8
r 0.407333 0 1 cbr 1000 ------- 0 2.0 1.0 2 2
r 0.408667 0 1 cbr 1000 ------- 0 3.0 1.0 2 9
r 0.41 0 1 cbr 1000 ------- 0 2.0 1.0 3 3
r 0.411333 0 1 cbr 1000 ------- 0 3.0 1.0 3 10
r 0.412667 0 1 cbr 1000 ------- 0 2.0 1.0 4 4
r 0.414 0 1 cbr 1000 ------- 0 2.0 1.0 5 5
r 0.415333 0 1 cbr 1000 ------- 0 2.0 1.0 6 6
+ 0.45 3 0 cbr 1000 ------- 0 3.0 1.0 28 35
- 0.45 3 0 cbr 1000 ------- 0 3.0 1.0 28 35
+ 0.45 3 0 cbr 1000 ------- 0 3.0 1.0 29 36
+ 0.45 3 0 cbr 1000 ------- 0 3.0 1.0 30 37
+ 0.45 3 0 cbr 1000 ------- 0 3.0 1.0 31 38
- 0.450667 3 0 cbr 1000 ------- 0 3.0 1.0 29 36
r 0.450667 3 0 cbr 1000 ------- 0 3.0 1.0 20 27
+ 0.450667 0 1 cbr 1000 ------- 0 3.0 1.0 20 27
- 0.450667 0 1 cbr 1000 ------- 0 3.0 1.0 20 27
- 0.451333 3 0 cbr 1000 ------- 0 3.0 1.0 30 37
r 0.451333 3 0 cbr 1000 ------- 0 3.0 1.0 21 28
+ 0.451333 0 1 cbr 1000 ------- 0 3.0 1.0 21 28
- 0.452 3 0 cbr 1000 ------- 0 3.0 1.0 31 38
r 0.452 3 0 cbr 1000 ------- 0 3.0 1.0 22 29
+ 0.452 0 1 cbr 1000 ------- 0 3.0 1.0 22 29
- 0.452 0 1 cbr 1000 ------- 0 3.0 1.0 21 28
r 0.452 0 1 cbr 1000 ------- 0 3.0 1.0 4 11
r 0.452667 3 0 cbr 1000 ------- 0 3.0 1.0 23 30
+ 0.452667 0 1 cbr 1000 ------- 0 3.0 1.0 23 30
r 0.453333 0 1 cbr 1000 ------- 0 3.0 1.0 5 12
- 0.453333 0 1 cbr 1000 ------- 0 3.0 1.0 22 29
- 0.454667 0 1 cbr 1000 ------- 0 3.0 1.0 23 30
r 0.454667 0 1 cbr 1000 ------- 0 3.0 1.0 6 13
r 0.456 0 1 cbr 1000 ------- 0 3.0 1.0 7 14
+ 0.5 3 0 cbr 1000 ------- 0 3.0 1.0 32 39
- 0.5 3 0 cbr 1000 ------- 0 3.0 1.0 32 39
+ 0.5 3 0 cbr 1000 ------- 0 3.0 1.0 33 40
+ 0.5 3 0 cbr 1000 ------- 0 3.0 1.0 34 41
+ 0.5 3 0 cbr 1000 ------- 0 3.0 1.0 35 42
+ 0.5 4 0 cbr 1000 ------- 0 4.0 1.0 0 43
- 0.5 4 0 cbr 1000 ------- 0 4.0 1.0 0 43
+ 0.5 4 0 cbr 1000 ------- 0 4.0 1.0 1 44
+ 0.5 4 0 cbr 1000 ------- 0 4.0 1.0 2 45
+ 0.5 4 0 cbr 1000 ------- 0 4.0 1.0 3 46
+ 0.5 4 0 cbr 1000 ------- 0 4.0 1.0 4 47
+ 0.5 4 0 cbr 1000 ------- 0 4.0 1.0 5 48
+ 0.5 4 0 cbr 1000 ------- 0 4.0 1.0 6 49
+ 0.5 4 0 cbr 1000 ------- 0 4.0 1.0 7 50
+ 0.5 4 0 cbr 1000 ------- 0 4.0 1.0 8 51
+ 0.5 4 0 cbr 1000 ------- 0 4.0 1.0 9 52
+ 0.5 4 0 cbr 1000 ------- 0 4.0 1.0 10 53
+ 0.5 4 0 cbr 1000 ------- 0 4.0 1.0 11 54
+ 0.5 4 0 cbr 1000 ------- 0 4.0 1.0 12 55
+ 0.5 4 0 cbr 1000 ------- 0 4.0 1.0 13 56
+ 0.5 4 0 cbr 1000 ------- 0 4.0 1.0 14 57
+ 0.5 4 0 cbr 1000 ------- 0 4.0 1.0 15 58
+ 0.5 4 0 cbr 1000 ------- 0 4.0 1.0 16 59
+ 0.5 4 0 cbr 1000 ------- 0 4.0 1.0 17 60
+ 0.5 4 0 cbr 1000 ------- 0 4.0 1.0 18 61
+ 0.5 4 0 cbr 1000 ------- 0 4.0 1.0 19 62
+ 0.5 4 0 cbr 1000 ------- 0 4.0 1.0 20 63
+ 0.5 4 0 cbr 1000 ------- 0 4.0 1.0 21 64
+ 0.5 4 0 cbr 1000 ------- 0 4.0 1.0 22 65
+ 0.5 4 0 cbr 1000 ------- 0 4.0 1.0 23 66
+ 0.5 2 0 cbr 1000 ------- 0 2.0 1.0 7 67
- 0.5 2 0 cbr 1000 ------- 0 2.0 1.0 7 67
+ 0.5 2 0 cbr 1000 ------- 0 2.0 1.0 8 68
+ 0.5 2 0 cbr 1000 ------- 0 2.0 1.0 9 69
+ 0.5 2 0 cbr 1000 ------- 0 2.0 1.0 10 70
+ 0.5 2 0 cbr 1000 ------- 0 2.0 1.0 11 71
+ 0.5 2 0 cbr 1000 ------- 0 2.0 1.0 12 72
+ 0.5 2 0 cbr 1000 ------- 0 2.0 1.0 13 73
r 0.500667 3 0 cbr 1000 ------- 0 3.0 1.0 24 31
+ 0.500667 0 1 cbr 1000 ------- 0 3.0 1.0 24 31
- 0.500667 0 1 cbr 1000 ------- 0 3.0 1.0 24 31
- 0.500667 3 0 cbr 1000 ------- 0 3.0 1.0 33 40
- 0.500667 4 0 cbr 1000 ------- 0 4.0 1.0 1 44
- 0.500667 2 0 cbr 1000 ------- 0 2.0 1.0 8 68
r 0.501333 3 0 cbr 1000 ------- 0 3.0 1.0 25 32
+ 0.501333 0 1 cbr 1000 ------- 0 3.0 1.0 25 32
- 0.501333 3 0 cbr 1000 ------- 0 3.0 1.0 34 41
- 0.501333 4 0 cbr 1000 ------- 0 4.0 1.0 2 45
- 0.501333 2 0 cbr 1000 ------- 0 2.0 1.0 9 69
r 0.502 3 0 cbr 1000 ------- 0 3.0 1.0 26 33
+ 0.502 0 1 cbr 1000 ------- 0 3.0 1.0 26 33
- 0.502 0 1 cbr 1000 ------- 0 3.0 1.0 25 32
r 0.502 0 1 cbr 1000 ------- 0 3.0 1.0 8 15
- 0.502 3 0 cbr 1000 ------- 0 3.0 1.0 35 42
- 0.502 4 0 cbr 1000 ------- 0 4.0 1.0 3 46
- 0.502 2 0 cbr 1000 ------- 0 2.0 1.0 10 70
r 0.502667 3 0 cbr 1000 ------- 0 3.0 1.0 27 34
+ 0.502667 0 1 cbr 1000 ------- 0 3.0 1.0 27 34
- 0.502667 4 0 cbr 1000 ------- 0 4.0 1.0 4 47
- 0.502667 2 0 cbr 1000 ------- 0 2.0 1.0 11 71
- 0.503333 0 1 cbr 1000 ------- 0 3.0 1.0 26 33
r 0.503333 0 1 cbr 1000 ------- 0 3.0 1.0 9 16
- 0.503333 4 0 cbr 1000 ------- 0 4.0 1.0 5 48
- 0.503333 2 0 cbr 1000 ------- 0 2.0 1.0 12 72
- 0.504 4 0 cbr 1000 ------- 0 4.0 1.0 6 49
- 0.504 2 0 cbr 1000 ------- 0 2.0 1.0 13 73
- 0.504667 0 1 cbr 1000 ------- 0 3.0 1.0 27 34
r 0.504667 0 1 cbr 1000 ------- 0 3.0 1.0 10 17
- 0.504667 4 0 cbr 1000 ------- 0 4.0 1.0 7 50
- 0.505333 4 0 cbr 1000 ------- 0 4.0 1.0 8 51
r 0.506 0 1 cbr 1000 ------- 0 3.0 1.0 11 18
- 0.506 4 0 cbr 1000 ------- 0 4.0 1.0 9 52
- 0.506667 4 0 cbr 1000 ------- 0 4.0 1.0 10 53
- 0.507333 4 0 cbr 1000 ------- 0 4.0 1.0 11 54
- 0.508 4 0 cbr 1000 ------- 0 4.0 1.0 12 55
- 0.508667 4 0 cbr 1000 ------- 0 4.0 1.0 13 56
- 0.509333 4 0 cbr 1000 ------- 0 4.0 1.0 14 57
- 0.51 4 0 cbr 1000 ------- 0 4.0 1.0 15 58
- 0.510667 4 0 cbr 1000 ------- 0 4.0 1.0 16 59
- 0.511333 4 0 cbr 1000 ------- 0 4.0 1.0 17 60
- 0.512 4 0 cbr 1000 ------- 0 4.0 1.0 18 61
- 0.512667 4 0 cbr 1000 ------- 0 4.0 1.0 19 62
- 0.513333 4 0 cbr 1000 ------- 0 4.0 1.0 20 63
- 0.514 4 0 cbr 1000 ------- 0 4.0 1.0 21 64
- 0.514667 4 0 cbr 1000 ------- 0 4.0 1.0 22 65
- 0.515333 4 0 cbr 1000 ------- 0 4.0 1.0 23 66
+ 0.52 4 0 cbr 1000 ------- 0 4.0 1.0 24 74
- 0.52 4 0 cbr 1000 ------- 0 4.0 1.0 24 74
+ 0.52 4 0 cbr 1000 ------- 0 4.0 1.0 25 75
+ 0.52 4 0 cbr 1000 ------- 0 4.0 1.0 26 76
+ 0.52 4 0 cbr 1000 ------- 0 4.0 1.0 27 77
+ 0.52 4 0 cbr 1000 ------- 0 4.0 1.0 28 78
+ 0.52 4 0 cbr 1000 ------- 0 4.0 1.0 29 79
+ 0.52 4 0 cbr 1000 ------- 0 4.0 1.0 30 80
+ 0.52 4 0 cbr 1000 ------- 0 4.0 1.0 31 81
+ 0.52 4 0 cbr 1000 ------- 0 4.0 1.0 32 82
+ 0.52 4 0 cbr 1000 ------- 0 4.0 1.0 33 83
+ 0.52 4 0 cbr 1000 ------- 0 4.0 1.0 34 84
+ 0.52 4 0 cbr 1000 ------- 0 4.0 1.0 35 85
+ 0.52 4 0 cbr 1000 ------- 0 4.0 1.0 36 86
+ 0.52 4 0 cbr 1000 ------- 0 4.0 1.0 37 87
+ 0.52 4 0 cbr 1000 ------- 0 4.0 1.0 38 88
+ 0.52 4 0 cbr 1000 ------- 0 4.0 1.0 39 89
+ 0.52 4 0 cbr 1000 ------- 0 4.0 1.0 40 90
+ 0.52 4 0 cbr 1000 ------- 0 4.0 1.0 41 91
+ 0.52 4 0 cbr 1000 ------- 0 4.0 1.0 42 92
+ 0.52 4 0 cbr 1000 ------- 0 4.0 1.0 43 93
+ 0.52 4 0 cbr 1000 ------- 0 4.0 1.0 44 94
+ 0.52 4 0 cbr 1000 ------- 0 4.0 1.0 45 95
+ 0.52 4 0 cbr 1000 ------- 0 4.0 1.0 46 96
+ 0.52 4 0 cbr 1000 ------- 0 4.0 1.0 47 97
- 0.520667 4 0 cbr 1000 ------- 0 4.0 1.0 25 75
- 0.521333 4 0 cbr 1000 ------- 0 4.0 1.0 26 76
- 0.522 4 0 cbr 1000 ------- 0 4.0 1.0 27 77
- 0.522667 4 0 cbr 1000 ------- 0 4.0 1.0 28 78
- 0.523333 4 0 cbr 1000 ------- 0 4.0 1.0 29 79
- 0.524 4 0 cbr 1000 ------- 0 4.0 1.0 30 80
- 0.524667 4 0 cbr 1000 ------- 0 4.0 1.0 31 81
- 0.525333 4 0 cbr 1000 ------- 0 4.0 1.0 32 82
- 0.526 4 0 cbr 1000 ------- 0 4.0 1.0 33 83
- 0.526667 4 0 cbr 1000 ------- 0 4.0 1.0 34 84
- 0.527333 4 0 cbr 1000 ------- 0 4.0 1.0 35 85
- 0.528 4 0 cbr 1000 ------- 0 4.0 1.0 36 86
- 0.528667 4 0 cbr 1000 ------- 0 4.0 1.0 37 87
- 0.529333 4 0 cbr 1000 ------- 0 4.0 1.0 38 88
- 0.53 4 0 cbr 1000 ------- 0 4.0 1.0 39 89
- 0.530667 4 0 cbr 1000 ------- 0 4.0 1.0 40 90
- 0.531333 4 0 cbr 1000 ------- 0 4.0 1.0 41 91
- 0.532 4 0 cbr 1000 ------- 0 4.0 1.0 42 92
- 0.532667 4 0 cbr 1000 ------- 0 4.0 1.0 43 93
- 0.533333 4 0 cbr 1000 ------- 0 4.0 1.0 44 94
- 0.534 4 0 cbr 1000 ------- 0 4.0 1.0 45 95
- 0.534667 4 0 cbr 1000 ------- 0 4.0 1.0 46 96
- 0.535333 4 0 cbr 1000 ------- 0 4.0 1.0 47 97
+ 0.54 4 0 cbr 1000 ------- 0 4.0 1.0 48 98
- 0.54 4 0 cbr 1000 ------- 0 4.0 1.0 48 98
+ 0.54 4 0 cbr 1000 ------- 0 4.0 1.0 49 99
+ 0.54 4 0 cbr 1000 ------- 0 4.0 1.0 50 100
+ 0.54 4 0 cbr 1000 ------- 0 4.0 1.0 51 101
+ 0.54 4 0 cbr 1000 ------- 0 4.0 1.0 52 102
+ 0.54 4 0 cbr 1000 ------- 0 4.0 1.0 53 103
+ 0.54 4 0 cbr 1000 ------- 0 4.0 1.0 54 104
+ 0.54 4 0 cbr 1000 ------- 0 4.0 1.0 55 105
+ 0.54 4 0 cbr 1000 ------- 0 4.0 1.0 56 106
+ 0.54 4 0 cbr 1000 ------- 0 4.0 1.0 57 107
+ 0.54 4 0 cbr 1000 ------- 0 4.0 1.0 58 108
+ 0.54 4 0 cbr 1000 ------- 0 4.0 1.0 59 109
+ 0.54 4 0 cbr 1000 ------- 0 4.0 1.0 60 110
+ 0.54 4 0 cbr 1000 ------- 0 4.0 1.0 61 111
+ 0.54 4 0 cbr 1000 ------- 0 4.0 1.0 62 112
+ 0.54 4 0 cbr 1000 ------- 0 4.0 1.0 63 113
+ 0.54 4 0 cbr 1000 ------- 0 4.0 1.0 64 114
+ 0.54 4 0 cbr 1000 ------- 0 4.0 1.0 65 115
+ 0.54 4 0 cbr 1000 ------- 0 4.0 1.0 66 116
+ 0.54 4 0 cbr 1000 ------- 0 4.0 1.0 67 117
+ 0.54 4 0 cbr 1000 ------- 0 4.0 1.0 68 118
+ 0.54 4 0 cbr 1000 ------- 0 4.0 1.0 69 119
+ 0.54 4 0 cbr 1000 ------- 0 4.0 1.0 70 120
+ 0.54 4 0 cbr 1000 ------- 0 4.0 1.0 71 121
- 0.540667 4 0 cbr 1000 ------- 0 4.0 1.0 49 99
- 0.541333 4 0 cbr 1000 ------- 0 4.0 1.0 50 100
- 0.542 4 0 cbr 1000 ------- 0 4.0 1.0 51 101
- 0.542667 4 0 cbr 1000 ------- 0 4.0 1.0 52 102
- 0.543333 4 0 cbr 1000 ------- 0 4.0 1.0 53 103
- 0.544 4 0 cbr 1000 ------- 0 4.0 1.0 54 104
- 0.544667 4 0 cbr 1000 ------- 0 4.0 1.0 55 105
- 0.545333 4 0 cbr 1000 ------- 0 4.0 1.0 56 106
- 0.546 4 0 cbr 1000 ------- 0 4.0 1.0 57 107
- 0.546667 4 0 cbr 1000 ------- 0 4.0 1.0 58 108
- 0.547333 4 0 cbr 1000 ------- 0 4.0 1.0 59 109
- 0.548 4 0 cbr 1000 ------- 0 4.0 1.0 60 110
- 0.548667 4 0 cbr 1000 ------- 0 4.0 1.0 61 111
- 0.549333 4 0 cbr 1000 ------- 0 4.0 1.0 62 112
+ 0.55 3 0 cbr 1000 ------- 0 3.0 1.0 36 122
- 0.55 3 0 cbr 1000 ------- 0 3.0 1.0 36 122
+ 0.55 3 0 cbr 1000 ------- 0 3.0 1.0 37 123
+ 0.55 3 0 cbr 1000 ------- 0 3.0 1.0 38 124
+ 0.55 3 0 cbr 1000 ------- 0 3.0 1.0 39 125
- 0.55 4 0 cbr 1000 ------- 0 4.0 1.0 63 113
r 0.550667 3 0 cbr 1000 ------- 0 3.0 1.0 28 35
+ 0.550667 0 1 cbr 1000 ------- 0 3.0 1.0 28 35
- 0.550667 0 1 cbr 1000 ------- 0 3.0 1.0 28 35
- 0.550667 3 0 cbr 1000 ------- 0 3.0 1.0 37 123
- 0.550667 4 0 cbr 1000 ------- 0 4.0 1.0 64 114
r 0.551333 3 0 cbr 1000 ------- 0 3.0 1.0 29 36
+ 0.551333 0 1 cbr 1000 ------- 0 3.0 1.0 29 36
- 0.551333 3 0 cbr 1000 ------- 0 3.0 1.0 38 124
- 0.551333 4 0 cbr 1000 ------- 0 4.0 1.0 65 115
r 0.552 3 0 cbr 1000 ------- 0 3.0 1.0 30 37
+ 0.552 0 1 cbr 1000 ------- 0 3.0 1.0 30 37
- 0.552 0 1 cbr 1000 ------- 0 3.0 1.0 29 36
r 0.552 0 1 cbr 1000 ------- 0 3.0 1.0 12 19
- 0.552 3 0 cbr 1000 ------- 0 3.0 1.0 39 125
- 0.552 4 0 cbr 1000 ------- 0 4.0 1.0 66 116
r 0.552667 3 0 cbr 1000 ------- 0 3.0 1.0 31 38
+ 0.552667 0 1 cbr 1000 ------- 0 3.0 1.0 31 38
- 0.552667 4 0 cbr 1000 ------- 0 4.0 1.0 67 117
- 0.553333 0 1 cbr 1000 ------- 0 3.0 1.0 30 37
r 0.553333 0 1 cbr 1000 ------- 0 3.0 1.0 13 20
- 0.553333 4 0 cbr 1000 ------- 0 4.0 1.0 68 118
- 0.554 4 0 cbr 1000 ------- 0 4.0 1.0 69 119
- 0.554667 0 1 cbr 1000 ------- 0 3.0 1.0 31 38
r 0.554667 0 1 cbr 1000 ------- 0 3.0 1.0 14 21
- 0.554667 4 0 cbr 1000 ------- 0 4.0 1.0 70 120
- 0.555333 4 0 cbr 1000 ------- 0 4.0 1.0 71 121
r 0.556 0 1 cbr 1000 ------- 0 3.0 1.0 15 22
+ 0.56 4 0 cbr 1000 ------- 0 4.0 1.0 72 126
- 0.56 4 0 cbr 1000 ------- 0 4.0 1.0 72 126
+ 0.56 4 0 cbr 1000 ------- 0 4.0 1.0 73 127
+ 0.56 4 0 cbr 1000 ------- 0 4.0 1.0 74 128
+ 0.56 4 0 cbr 1000 ------- 0 4.0 1.0 75 129
+ 0.56 4 0 cbr 1000 ------- 0 4.0 1.0 76 130
+ 0.56 4 0 cbr 1000 ------- 0 4.0 1.0 77 131
+ 0.56 4 0 cbr 1000 ------- 0 4.0 1.0 78 132
+ 0.56 4 0 cbr 1000 ------- 0 4.0 1.0 79 133
+ 0.56 4 0 cbr 1000 ------- 0 4.0 1.0 80 134
+ 0.56 4 0 cbr 1000 ------- 0 4.0 1.0 81 135
+ 0.56 4 0 cbr 1000 ------- 0 4.0 1.0 82 136
+ 0.56 4 0 cbr 1000 ------- 0 4.0 1.0 83 137
+ 0.56 4 0 cbr 1000 ------- 0 4.0 1.0 84 138
+ 0.56 4 0 cbr 1000 ------- 0 4.0 1.0 85 139
+ 0.56 4 0 cbr 1000 ------- 0 4.0 1.0 86 140
+ 0.56 4 0 cbr 1000 ------- 0 4.0 1.0 87 141
+ 0.56 4 0 cbr 1000 ------- 0 4.0 1.0 88 142
+ 0.56 4 0 cbr 1000 ------- 0 4.0 1.0 89 143
+ 0.56 4 0 cbr 1000 ------- 0 4.0 1.0 90 144
+ 0.56 4 0 cbr 1000 ------- 0 4.0 1.0 91 145
+ 0.56 4 0 cbr 1000 ------- 0 4.0 1.0 92 146
+ 0.56 4 0 cbr 1000 ------- 0 4.0 1.0 93 147
+ 0.56 4 0 cbr 1000 ------- 0 4.0 1.0 94 148
+ 0.56 4 0 cbr 1000 ------- 0 4.0 1.0 95 149
- 0.560667 4 0 cbr 1000 ------- 0 4.0 1.0 73 127
- 0.561333 4 0 cbr 1000 ------- 0 4.0 1.0 74 128
- 0.562 4 0 cbr 1000 ------- 0 4.0 1.0 75 129
- 0.562667 4 0 cbr 1000 ------- 0 4.0 1.0 76 130
- 0.563333 4 0 cbr 1000 ------- 0 4.0 1.0 77 131
- 0.564 4 0 cbr 1000 ------- 0 4.0 1.0 78 132
- 0.564667 4 0 cbr 1000 ------- 0 4.0 1.0 79 133
- 0.565333 4 0 cbr 1000 ------- 0 4.0 1.0 80 134
- 0.566 4 0 cbr 1000 ------- 0 4.0 1.0 81 135
- 0.566667 4 0 cbr 1000 ------- 0 4.0 1.0 82 136
- 0.567333 4 0 cbr 1000 ------- 0 4.0 1.0 83 137
- 0.568 4 0 cbr 1000 ------- 0 4.0 1.0 84 138
- 0.568667 4 0 cbr 1000 ------- 0 4.0 1.0 85 139
- 0.569333 4 0 cbr 1000 ------- 0 4.0 1.0 86 140
- 0.57 4 0 cbr 1000 ------- 0 4.0 1.0 87 141
- 0.570667 4 0 cbr 1000 ------- 0 4.0 1.0 88 142
- 0.571333 4 0 cbr 1000 ------- 0 4.0 1.0 89 143
- 0.572 4 0 cbr 1000 ------- 0 4.0 1.0 90 144
- 0.572667 4 0 cbr 1000 ------- 0 4.0 1.0 91 145
- 0.573333 4 0 cbr 1000 ------- 0 4.0 1.0 92 146
- 0.574 4 0 cbr 1000 ------- 0 4.0 1.0 93 147
- 0.574667 4 0 cbr 1000 ------- 0 4.0 1.0 94 148
- 0.575333 4 0 cbr 1000 ------- 0 4.0 1.0 95 149
+ 0.58 4 0 cbr 1000 ------- 0 4.0 1.0 96 150
- 0.58 4 0 cbr 1000 ------- 0 4.0 1.0 96 150
+ 0.58 4 0 cbr 1000 ------- 0 4.0 1.0 97 151
+ 0.58 4 0 cbr 1000 ------- 0 4.0 1.0 98 152
+ 0.58 4 0 cbr 1000 ------- 0 4.0 1.0 99 153
+ 0.58 4 0 cbr 1000 ------- 0 4.0 1.0 100 154
+ 0.58 4 0 cbr 1000 ------- 0 4.0 1.0 101 155
+ 0.58 4 0 cbr 1000 ------- 0 4.0 1.0 102 156
+ 0.58 4 0 cbr 1000 ------- 0 4.0 1.0 103 157
+ 0.58 4 0 cbr 1000 ------- 0 4.0 1.0 104 158
+ 0.58 4 0 cbr 1000 ------- 0 4.0 1.0 105 159
+ 0.58 4 0 cbr 1000 ------- 0 4.0 1.0 106 160
+ 0.58 4 0 cbr 1000 ------- 0 4.0 1.0 107 161
+ 0.58 4 0 cbr 1000 ------- 0 4.0 1.0 108 162
+ 0.58 4 0 cbr 1000 ------- 0 4.0 1.0 109 163
+ 0.58 4 0 cbr 1000 ------- 0 4.0 1.0 110 164
+ 0.58 4 0 cbr 1000 ------- 0 4.0 1.0 111 165
+ 0.58 4 0 cbr 1000 ------- 0 4.0 1.0 112 166
+ 0.58 4 0 cbr 1000 ------- 0 4.0 1.0 113 167
+ 0.58 4 0 cbr 1000 ------- 0 4.0 1.0 114 168
+ 0.58 4 0 cbr 1000 ------- 0 4.0 1.0 115 169
+ 0.58 4 0 cbr 1000 ------- 0 4.0 1.0 116 170
+ 0.58 4 0 cbr 1000 ------- 0 4.0 1.0 117 171
+ 0.58 4 0 cbr 1000 ------- 0 4.0 1.0 118 172
+ 0.58 4 0 cbr 1000 ------- 0 4.0 1.0 119 173
- 0.580667 4 0 cbr 1000 ------- 0 4.0 1.0 97 151
- 0.581333 4 0 cbr 1000 ------- 0 4.0 1.0 98 152
- 0.582 4 0 cbr 1000 ------- 0 4.0 1.0 99 153
- 0.582667 4 0 cbr 1000 ------- 0 4.0 1.0 100 154
- 0.583333 4 0 cbr 1000 ------- 0 4.0 1.0 101 155
- 0.584 4 0 cbr 1000 ------- 0 4.0 1.0 102 156
- 0.584667 4 0 cbr 1000 ------- 0 4.0 1.0 103 157
- 0.585333 4 0 cbr 1000 ------- 0 4.0 1.0 104 158
- 0.586 4 0 cbr 1000 ------- 0 4.0 1.0 105 159
- 0.586667 4 0 cbr 1000 ------- 0 4.0 1.0 106 160
- 0.587333 4 0 cbr 1000 ------- 0 4.0 1.0 107 161
- 0.588 4 0 cbr 1000 ------- 0 4.0 1.0 108 162
- 0.588667 4 0 cbr 1000 ------- 0 4.0 1.0 109 163
- 0.589333 4 0 cbr 1000 ------- 0 4.0 1.0 110 164
- 0.59 4 0 cbr 1000 ------- 0 4.0 1.0 111 165
- 0.590667 4 0 cbr 1000 ------- 0 4.0 1.0 112 166
- 0.591333 4 0 cbr 1000 ------- 0 4.0 1.0 113 167
- 0.592 4 0 cbr 1000 ------- 0 4.0 1.0 114 168
- 0.592667 4 0 cbr 1000 ------- 0 4.0 1.0 115 169
- 0.593333 4 0 cbr 1000 ------- 0 4.0 1.0 116 170
- 0.594 4 0 cbr 1000 ------- 0 4.0 1.0 117 171
- 0.594667 4 0 cbr 1000 ------- 0 4.0 1.0 118 172
- 0.595333 4 0 cbr 1000 ------- 0 4.0 1.0 119 173
+ 0.6 3 0 cbr 1000 ------- 0 3.0 1.0 40 174
- 0.6 3 0 cbr 1000 ------- 0 3.0 1.0 40 174
+ 0.6 3 0 cbr 1000 ------- 0 3.0 1.0 41 175
+ 0.6 3 0 cbr 1000 ------- 0 3.0 1.0 42 176
+ 0.6 3 0 cbr 1000 ------- 0 3.0 1.0 43 177
+ 0.6 4 0 cbr 1000 ------- 0 4.0 1.0 120 178
- 0.6 4 0 cbr 1000 ------- 0 4.0 1.0 120 178
+ 0.6 4 0 cbr 1000 ------- 0 4.0 1.0 121 179
+ 0.6 4 0 cbr 1000 ------- 0 4.0 1.0 122 180
+ 0.6 4 0 cbr 1000 ------- 0 4.0 1.0 123 181
+ 0.6 4 0 cbr 1000 ------- 0 4.0 1.0 124 182
+ 0.6 4 0 cbr 1000 ------- 0 4.0 1.0 125 183
+ 0.6 4 0 cbr 1000 ------- 0 4.0 1.0 126 184
+ 0.6 4 0 cbr 1000 ------- 0 4.0 1.0 127 185
+ 0.6 4 0 cbr 1000 ------- 0 4.0 1.0 128 186
+ 0.6 4 0 cbr 1000 ------- 0 4.0 1.0 129 187
+ 0.6 4 0 cbr 1000 ------- 0 4.0 1.0 130 188
+ 0.6 4 0 cbr 1000 ------- 0 4.0 1.0 131 189
+ 0.6 4 0 cbr 1000 ------- 0 4.0 1.0 132 190
+ 0.6 4 0 cbr 1000 ------- 0 4.0 1.0 133 191
+ 0.6 4 0 cbr 1000 ------- 0 4.0 1.0 134 192
+ 0.6 4 0 cbr 1000 ------- 0 4.0 1.0 135 193
+ 0.6 4 0 cbr 1000 ------- 0 4.0 1.0 136 194
+ 0.6 4 0 cbr 1000 ------- 0 4.0 1.0 137 195
+ 0.6 4 0 cbr 1000 ------- 0 4.0 1.0 138 196
+ 0.6 4 0 cbr 1000 ------- 0 4.0 1.0 139 197
+ 0.6 4 0 cbr 1000 ------- 0 4.0 1.0 140 198
+ 0.6 4 0 cbr 1000 ------- 0 4.0 1.0 141 199
+ 0.6 4 0 cbr 1000 ------- 0 4.0 1.0 142 200
+ 0.6 4 0 cbr 1000 ------- 0 4.0 1.0 143 201
r 0.600667 3 0 cbr 1000 ------- 0 3.0 1.0 32 39
+ 0.600667 0 1 cbr 1000 ------- 0 3.0 1.0 32 39
- 0.600667 0 1 cbr 1000 ------- 0 3.0 1.0 32 39
r 0.600667 4 0 cbr 1000 ------- 0 4.0 1.0 0 43
+ 0.600667 0 1 cbr 1000 ------- 0 4.0 1.0 0 43
r 0.600667 2 0 cbr 1000 ------- 0 2.0 1.0 7 67
+ 0.600667 0 1 cbr 1000 ------- 0 2.0 1.0 7 67
- 0.600667 3 0 cbr 1000 ------- 0 3.0 1.0 41 175
- 0.600667 4 0 cbr 1000 ------- 0 4.0 1.0 121 179
r 0.601333 3 0 cbr 1000 ------- 0 3.0 1.0 33 40
+ 0.601333 0 1 cbr 1000 ------- 0 3.0 1.0 33 40
r 0.601333 4 0 cbr 1000 ------- 0 4.0 1.0 1 44
+ 0.601333 0 1 cbr 1000 ------- 0 4.0 1.0 1 44
r 0.601333 2 0 cbr 1000 ------- 0 2.0 1.0 8 68
+ 0.601333 0 1 cbr 1000 ------- 0 2.0 1.0 8 68
- 0.601333 3 0 cbr 1000 ------- 0 3.0 1.0 42 176
- 0.601333 4 0 cbr 1000 ------- 0 4.0 1.0 122 180
- 0.602 0 1 cbr 1000 ------- 0 4.0 1.0 0 43
r 0.602 0 1 cbr 1000 ------- 0 3.0 1.0 16 23
r 0.602 3 0 cbr 1000 ------- 0 3.0 1.0 34 41
+ 0.602 0 1 cbr 1000 ------- 0 3.0 1.0 34 41
r 0.602 4 0 cbr 1000 ------- 0 4.0 1.0 2 45
+ 0.602 0 1 cbr 1000 ------- 0 4.0 1.0 2 45
r 0.602 2 0 cbr 1000 ------- 0 2.0 1.0 9 69
+ 0.602 0 1 cbr 1000 ------- 0 2.0 1.0 9 69
- 0.602 3 0 cbr 1000 ------- 0 3.0 1.0 43 177
- 0.602 4 0 cbr 1000 ------- 0 4.0 1.0 123 181
r 0.602667 3 0 cbr 1000 ------- 0 3.0 1.0 35 42
+ 0.602667 0 1 cbr 1000 ------- 0 3.0 1.0 35 42
r 0.602667 4 0 cbr 1000 ------- 0 4.0 1.0 3 46
+ 0.602667 0 1 cbr 1000 ------- 0 4.0 1.0 3 46
r 0.602667 2 0 cbr 1000 ------- 0 2.0 1.0 10 70
+ 0.602667 0 1 cbr 1000 ------- 0 2.0 1.0 10 70
- 0.602667 4 0 cbr 1000 ------- 0 4.0 1.0 124 182
- 0.603333 0 1 cbr 1000 ------- 0 2.0 1.0 7 67
r 0.603333 0 1 cbr 1000 ------- 0 3.0 1.0 17 24
r 0.603333 4 0 cbr 1000 ------- 0 4.0 1.0 4 47
+ 0.603333 0 1 cbr 1000 ------- 0 4.0 1.0 4 47
r 0.603333 2 0 cbr 1000 ------- 0 2.0 1.0 11 71
+ 0.603333 0 1 cbr 1000 ------- 0 2.0 1.0 11 71
- 0.603333 4 0 cbr 1000 ------- 0 4.0 1.0 125 183
r 0.604 4 0 cbr 1000 ------- 0 4.0 1.0 5 48
+ 0.604 0 1 cbr 1000 ------- 0 4.0 1.0 5 48
r 0.604 2 0 cbr 1000 ------- 0 2.0 1.0 12 72
+ 0.604 0 1 cbr 1000 ------- 0 2.0 1.0 12 72
- 0.604 4 0 cbr 1000 ------- 0 4.0 1.0 126 184
- 0.604667 0 1 cbr 1000 ------- 0 3.0 1.0 33 40
r 0.604667 0 1 cbr 1000 ------- 0 3.0 1.0 18 25
r 0.604667 4 0 cbr 1000 ------- 0 4.0 1.0 6 49
+ 0.604667 0 1 cbr 1000 ------- 0 4.0 1.0 6 49
r 0.604667 2 0 cbr 1000 ------- 0 2.0 1.0 13 73
+ 0.604667 0 1 cbr 1000 ------- 0 2.0 1.0 13 73
- 0.604667 4 0 cbr 1000 ------- 0 4.0 1.0 127 185
r 0.605333 4 0 cbr 1000 ------- 0 4.0 1.0 7 50
+ 0.605333 0 1 cbr 1000 ------- 0 4.0 1.0 7 50
- 0.605333 4 0 cbr 1000 ------- 0 4.0 1.0 128 186
- 0.606 0 1 cbr 1000 ------- 0 4.0 1.0 1 44
r 0.606 0 1 cbr 1000 ------- 0 3.0 1.0 19 26
r 0.606 4 0 cbr 1000 ------- 0 4.0 1.0 8 51
+ 0.606 0 1 cbr 1000 ------- 0 4.0 1.0 8 51
- 0.606 4 0 cbr 1000 ------- 0 4.0 1.0 129 187
r 0.606667 4 0 cbr 1000 ------- 0 4.0 1.0 9 52
+ 0.606667 0 1 cbr 1000 ------- 0 4.0 1.0 9 52
- 0.606667 4 0 cbr 1000 ------- 0 4.0 1.0 130 188
- 0.607333 0 1 cbr 1000 ------- 0 2.0 1.0 8 68
r 0.607333 4 0 cbr 1000 ------- 0 4.0 1.0 10 53
+ 0.607333 0 1 cbr 1000 ------- 0 4.0 1.0 10 53
- 0.607333 4 0 cbr 1000 ------- 0 4.0 1.0 131 189
r 0.608 4 0 cbr 1000 ------- 0 4.0 1.0 11 54
+ 0.608 0 1 cbr 1000 ------- 0 4.0 1.0 11 54
- 0.608 4 0 cbr 1000 ------- 0 4.0 1.0 132 190
- 0.608667 0 1 cbr 1000 ------- 0 3.0 1.0 34 41
r 0.608667 4 0 cbr 1000 ------- 0 4.0 1.0 12 55
+ 0.608667 0 1 cbr 1000 ------- 0 4.0 1.0 12 55
- 0.608667 4 0 cbr 1000 ------- 0 4.0 1.0 133 191
r 0.609333 4 0 cbr 1000 ------- 0 4.0 1.0 13 56
+ 0.609333 0 1 cbr 1000 ------- 0 4.0 1.0 13 56
- 0.609333 4 0 cbr 1000 ------- 0 4.0 1.0 134 192
- 0.61 0 1 cbr 1000 ------- 0 4.0 1.0 2 45
r 0.61 4 0 cbr 1000 ------- 0 4.0 1.0 14 57
+ 0.61 0 1 cbr 1000 ------- 0 4.0 1.0 14 57
- 0.61 4 0 cbr 1000 ------- 0 4.0 1.0 135 193
r 0.610667 4 0 cbr 1000 ------- 0 4.0 1.0 15 58
+ 0.610667 0 1 cbr 1000 ------- 0 4.0 1.0 15 58
- 0.610667 4 0 cbr 1000 ------- 0 4.0 1.0 136 194
- 0.611333 0 1 cbr 1000 ------- 0 2.0 1.0 9 69
r 0.611333 4 0 cbr 1000 ------- 0 4.0 1.0 16 59
+ 0.611333 0 1 cbr 1000 ------- 0 4.0 1.0 16 59
- 0.611333 4 0 cbr 1000 ------- 0 4.0 1.0 137 195
r 0.612 4 0 cbr 1000 ------- 0 4.0 1.0 17 60
+ 0.612 0 1 cbr 1000 ------- 0 4.0 1.0 17 60
d 0.612 0 1 cbr 1000 ------- 0 4.0 1.0 17 60
- 0.612 4 0 cbr 1000 ------- 0 4.0 1.0 138 196
- 0.612667 0 1 cbr 1000 ------- 0 3.0 1.0 35 42
r 0.612667 4 0 cbr 1000 ------- 0 4.0 1.0 18 61
+ 0.612667 0 1 cbr 1000 ------- 0 4.0 1.0 18 61
- 0.612667 4 0 cbr 1000 ------- 0 4.0 1.0 139 197
r 0.613333 4 0 cbr 1000 ------- 0 4.0 1.0 19 62
+ 0.613333 0 1 cbr 1000 ------- 0 4.0 1.0 19 62
d 0.613333 0 1 cbr 1000 ------- 0 4.0 1.0 19 62
- 0.613333 4 0 cbr 1000 ------- 0 4.0 1.0 140 198
- 0.614 0 1 cbr 1000 ------- 0 4.0 1.0 3 46
r 0.614 4 0 cbr 1000 ------- 0 4.0 1.0 20 63
+ 0.614 0 1 cbr 1000 ------- 0 4.0 1.0 20 63
- 0.614 4 0 cbr 1000 ------- 0 4.0 1.0 141 199
r 0.614667 4 0 cbr 1000 ------- 0 4.0 1.0 21 64
+ 0.614667 0 1 cbr 1000 ------- 0 4.0 1.0 21 64
d 0.614667 0 1 cbr 1000 ------- 0 4.0 1.0 21 64
- 0.614667 4 0 cbr 1000 ------- 0 4.0 1.0 142 200
- 0.615333 0 1 cbr 1000 ------- 0 2.0 1.0 10 70
r 0.615333 4 0 cbr 1000 ------- 0 4.0 1.0 22 65
+ 0.615333 0 1 cbr 1000 ------- 0 4.0 1.0 22 65
- 0.615333 4 0 cbr 1000 ------- 0 4.0 1.0 143 201
r 0.616 4 0 cbr 1000 ------- 0 4.0 1.0 23 66
+ 0.616 0 1 cbr 1000 ------- 0 4.0 1.0 23 66
d 0.616 0 1 cbr 1000 ------- 0 4.0 1.0 23 66
- 0.616667 0 1 cbr 1000 ------- 0 4.0 1.0 4 47
- 0.618 0 1 cbr 1000 ------- 0 2.0 1.0 11 71
- 0.619333 0 1 cbr 1000 ------- 0 4.0 1.0 5 48
+ 0.62 4 0 cbr 1000 ------- 0 4.0 1.0 144 202
- 0.62 4 0 cbr 1000 ------- 0 4.0 1.0 144 202
+ 0.62 4 0 cbr 1000 ------- 0 4.0 1.0 145 203
+ 0.62 4 0 cbr 1000 ------- 0 4.0 1.0 146 204
+ 0.62 4 0 cbr 1000 ------- 0 4.0 1.0 147 205
+ 0.62 4 0 cbr 1000 ------- 0 4.0 1.0 148 206
+ 0.62 4 0 cbr 1000 ------- 0 4.0 1.0 149 207
+ 0.62 4 0 cbr 1000 ------- 0 4.0 1.0 150 208
+ 0.62 4 0 cbr 1000 ------- 0 4.0 1.0 151 209
+ 0.62 4 0 cbr 1000 ------- 0 4.0 1.0 152 210
+ 0.62 4 0 cbr 1000 ------- 0 4.0 1.0 153 211
+ 0.62 4 0 cbr 1000 ------- 0 4.0 1.0 154 212
+ 0.62 4 0 cbr 1000 ------- 0 4.0 1.0 155 213
+ 0.62 4 0 cbr 1000 ------- 0 4.0 1.0 156 214
+ 0.62 4 0 cbr 1000 ------- 0 4.0 1.0 157 215